
     Program PWSCF v.6.3 starts on  1Nov2018 at 18:42:23 

     This program is part of the open-source Quantum ESPRESSO suite
     for quantum simulation of materials; please cite
         "P. Giannozzi et al., J. Phys.:Condens. Matter 21 395502 (2009);
         "P. Giannozzi et al., J. Phys.:Condens. Matter 29 465901 (2017);
          URL http://www.quantum-espresso.org", 
     in publications or presentations arising from this work. More details at
     http://www.quantum-espresso.org/quote

     Parallel version (MPI & OpenMP), running on       8 processor cores
     Number of MPI processes:                 4
     Threads/MPI process:                     2

     MPI processes distributed on     1 nodes
     R & G space division:  proc/nbgrp/npool/nimage =       4
     Reading input from IrCsC8.relax.in

     Current dimensions of program PWSCF are:
     Max number of different atomic species (ntypx) = 10
     Max number of k-points (npk) =  40000
     Max angular momentum in pseudopotentials (lmaxx) =  3

     IMPORTANT: XC functional enforced from input :
     Exchange-correlation      = VDW-DF-CX ( 1  4 27  0 1 0)
     Any further DFT definition will be discarded
     Please, verify this is what you really want

               file Ir.pbe-n-rrkjus_psl.0.2.3.UPF: wavefunction(s)  5D renormalized

     Subspace diagonalization in iterative solution of the eigenvalue problem:
     a serial algorithm will be used

 
     Parallelization info
     --------------------
     sticks:   dense  smooth     PW     G-vecs:    dense   smooth      PW
     Min         598     297     83               143504    50685    7598
     Max         600     298     85               143510    50702    7613
     Sum        2395    1189    337               574027   202767   30423
 


     bravais-lattice index     =            4
     lattice parameter (alat)  =       9.3020  a.u.
     unit-cell volume          =    4248.1912 (a.u.)^3
     number of atoms/cell      =           24
     number of atomic types    =            3
     number of electrons       =       176.00
     number of Kohn-Sham states=          106
     kinetic-energy cutoff     =      50.0000  Ry
     charge density cutoff     =     400.0000  Ry
     convergence threshold     =      1.0E-07
     mixing beta               =       0.7000
     number of iterations used =            8  plain     mixing
     Exchange-correlation      = VDW-DF-CX ( 1  4 27  0 1 0)

     celldm(1)=   9.302007  celldm(2)=   0.000000  celldm(3)=   6.094576
     celldm(4)=   0.000000  celldm(5)=   0.000000  celldm(6)=   0.000000

     crystal axes: (cart. coord. in units of alat)
               a(1) = (   1.000000   0.000000   0.000000 )  
               a(2) = (  -0.500000   0.866025   0.000000 )  
               a(3) = (   0.000000   0.000000   6.094576 )  

     reciprocal axes: (cart. coord. in units 2 pi/alat)
               b(1) = (  1.000000  0.577350  0.000000 )  
               b(2) = (  0.000000  1.154701  0.000000 )  
               b(3) = (  0.000000  0.000000  0.164080 )  


     PseudoPot. # 1 for C  read from file:
     ../PSEUDO/C.pbe-hgh.UPF
     MD5 check sum: 0e67d267521f6aebc6a2c9accb749a71
     Pseudo is Norm-conserving, Zval =  4.0
     Generated in analytical, separable form
     Using radial grid of 1073 points,  1 beta functions with: 
                l(1) =   0

     PseudoPot. # 2 for Cs read from file:
     ../PSEUDO/Cs.pbe-sp-hgh.UPF
     MD5 check sum: c2b3401c83551b801504dd4c165d9032
     Pseudo is Norm-conserving, Zval =  9.0
     Generated in analytical, separable form
     Using radial grid of 1251 points,  6 beta functions with: 
                l(1) =   0
                l(2) =   0
                l(3) =   1
                l(4) =   1
                l(5) =   2
                l(6) =   3

     PseudoPot. # 3 for Ir read from file:
     ../PSEUDO/Ir.pbe-n-rrkjus_psl.0.2.3.UPF
     MD5 check sum: c88bd550334906a664615218667a94b4
     Pseudo is Ultrasoft + core correction, Zval =  9.0
     Generated using "atomic" code by A. Dal Corso v.5.0.2 svn rev. 9415
     Using radial grid of 1277 points,  6 beta functions with: 
                l(1) =   0
                l(2) =   0
                l(3) =   1
                l(4) =   1
                l(5) =   2
                l(6) =   2
     Q(r) pseudized with 0 coefficients 


     vdW kernel table read from file vdW_kernel_table
     MD5 check sum: 0dc14f1bca13a5dfb50867197d55ede9

     atomic species   valence    mass     pseudopotential
        C              4.00    12.01070     C ( 1.00)
        Cs             9.00   132.90500     Cs( 1.00)
        Ir             9.00   192.21700     Ir( 1.00)

      6 Sym. Ops. (no inversion) found



   Cartesian axes

     site n.     atom                  positions (alat units)
         1           C   tau(   1) = (   0.4999996   0.5772883   1.5970957  )
         2           C   tau(   2) = (   0.2500531   0.1443682   1.5970957  )
         3           C   tau(   3) = (  -0.2499473   0.7216566   1.5970957  )
         4           C   tau(   4) = (   0.4999996   0.2886749   1.5983350  )
         5           C   tau(   5) = (   0.7499462   0.1443682   1.5970957  )
         6           C   tau(   6) = (  -0.0000007   0.5773498   1.5983350  )
         7           C   tau(   7) = (  -0.0000008   0.2887364   1.5970957  )
         8           C   tau(   8) = (   0.2499458   0.7216565   1.5970957  )
         9           Cs  tau(   9) = (   0.0000000   0.0000000   2.2419974  )
        10           Ir  tau(  10) = (   0.3161750   0.5476311   2.8456744  )
        11           Ir  tau(  11) = (   0.3676494   0.0000000   2.8456744  )
        12           Ir  tau(  12) = (  -0.1838254   0.3183937   2.8456744  )
        13           Ir  tau(  13) = (   0.0000000   0.0000000   3.2707992  )
        14           Ir  tau(  14) = (   0.4999996   0.2886749   3.2842789  )
        15           Ir  tau(  15) = (  -0.0000007   0.5773498   3.2842789  )
        16           Ir  tau(  16) = (   0.1667765   0.2888654   3.7215007  )
        17           Ir  tau(  17) = (  -0.3332239   0.5771594   3.7215007  )
        18           Ir  tau(  18) = (   0.6664463   0.0000000   3.7215007  )
        19           Ir  tau(  19) = (   0.3328998   0.5765994   4.1626649  )
        20           Ir  tau(  20) = (   0.3341997   0.0000000   4.1626649  )
        21           Ir  tau(  21) = (  -0.1671006   0.2894254   4.1626649  )
        22           Ir  tau(  22) = (   0.0000000   0.0000000   4.5924584  )
        23           Ir  tau(  23) = (   0.4999996   0.2886749   4.5927260  )
        24           Ir  tau(  24) = (  -0.0000007   0.5773498   4.5927260  )

     number of k points=    12  Methfessel-Paxton smearing, width (Ry)=  0.0050
                       cart. coord. in units 2pi/alat
        k(    1) = (   0.0000000   0.0000000   0.0000000), wk =   0.0246914
        k(    2) = (   0.0000000   0.1283001   0.0000000), wk =   0.1481481
        k(    3) = (   0.0000000   0.2566001   0.0000000), wk =   0.1481481
        k(    4) = (   0.0000000   0.3849002   0.0000000), wk =   0.1481481
        k(    5) = (   0.0000000   0.5132002   0.0000000), wk =   0.1481481
        k(    6) = (   0.1111111   0.1924501   0.0000000), wk =   0.1481481
        k(    7) = (   0.1111111   0.3207501   0.0000000), wk =   0.2962963
        k(    8) = (   0.1111111   0.4490502   0.0000000), wk =   0.2962963
        k(    9) = (   0.1111111   0.5773503   0.0000000), wk =   0.1481481
        k(   10) = (   0.2222222   0.3849002   0.0000000), wk =   0.1481481
        k(   11) = (   0.2222222   0.5132002   0.0000000), wk =   0.2962963
        k(   12) = (   0.3333333   0.5773503   0.0000000), wk =   0.0493827

     Dense  grid:   574027 G-vectors     FFT dimensions: (  60,  60, 375)

     Smooth grid:   202767 G-vectors     FFT dimensions: (  45,  45, 256)

     Estimated max dynamical RAM per process >     729.47 MB

     Estimated total dynamical RAM >       2.85 GB

     Initial potential from superposition of free atoms
     Check: negative starting charge=   -0.000277

     starting charge  174.99743, renormalised to  176.00000

     negative rho (up, down):  2.781E-04 0.000E+00


     %%%%%%%%%%%%%%%%%%%%%%%%%%%%%%%%%%%%%%%%%%%%%%%%%%%%%%%%%%%%%%%%%%%%%%%%
     %                                                                      %
     % You are using vdW-DF, which was implemented by the Thonhauser group. %
     % Please cite the following two papers that made this development      %
     % possible and the two reviews that describe the various versions:     %
     %                                                                      %
     %   T. Thonhauser et al., PRL 115, 136402 (2015).                      %
     %   T. Thonhauser et al., PRB 76, 125112 (2007).                       %
     %   K. Berland et al., Rep. Prog. Phys. 78, 066501 (2015).             %
     %   D.C. Langreth et al., J. Phys.: Condens. Matter 21, 084203 (2009). %
     %                                                                      %
     %                                                                      %
     % If you are calculating the stress with vdW-DF, please also cite:     %
     %                                                                      %
     %   R. Sabatini et al., J. Phys.: Condens. Matter 24, 424209 (2012).   %
     %                                                                      %
     %%%%%%%%%%%%%%%%%%%%%%%%%%%%%%%%%%%%%%%%%%%%%%%%%%%%%%%%%%%%%%%%%%%%%%%%


     Starting wfcs are  180 randomized atomic wfcs

     total cpu time spent up to now is       20.0 secs

     Self-consistent Calculation

     iteration #  1     ecut=    50.00 Ry     beta= 0.70
     Davidson diagonalization with overlap
     ethr =  1.00E-02,  avg # of iterations =  7.6

     negative rho (up, down):  3.953E-06 0.000E+00

     total cpu time spent up to now is       74.6 secs

     total energy              =    6018.10012901 Ry
     Harris-Foulkes estimate   =   -1114.60178460 Ry
     estimated scf accuracy    <    7861.90054676 Ry

     iteration #  2     ecut=    50.00 Ry     beta= 0.70
     Davidson diagonalization with overlap
     ethr =  1.00E-02,  avg # of iterations = 36.9

     negative rho (up, down):  5.362E+00 0.000E+00

     total cpu time spent up to now is      370.2 secs

     total energy              =   -4235.24575426 Ry
     Harris-Foulkes estimate   =  -17100.40705585 Ry
     estimated scf accuracy    <   32205.80831357 Ry

     iteration #  3     ecut=    50.00 Ry     beta= 0.70
     Davidson diagonalization with overlap
     ethr =  1.00E-02,  avg # of iterations = 26.3

     negative rho (up, down):  5.238E+00 0.000E+00

     total cpu time spent up to now is      596.3 secs

     total energy              =   -3554.23171353 Ry
     Harris-Foulkes estimate   =   -6500.22582981 Ry
     estimated scf accuracy    <   17290.11590255 Ry

     iteration #  4     ecut=    50.00 Ry     beta= 0.70
     Davidson diagonalization with overlap
     c_bands:  5 eigenvalues not converged
     c_bands:  1 eigenvalues not converged
     c_bands:  1 eigenvalues not converged
     c_bands:  2 eigenvalues not converged
     ethr =  1.00E-02,  avg # of iterations = 23.8

     negative rho (up, down):  2.538E+00 0.000E+00

     total cpu time spent up to now is      799.1 secs

     total energy              =   -3563.16125149 Ry
     Harris-Foulkes estimate   =   -4304.18274864 Ry
     estimated scf accuracy    <   16547.95954633 Ry

     iteration #  5     ecut=    50.00 Ry     beta= 0.70
     Davidson diagonalization with overlap
     ethr =  1.00E-02,  avg # of iterations =  6.1

     negative rho (up, down):  3.169E+00 0.000E+00

     total cpu time spent up to now is      839.3 secs

     total energy              =   -3118.52220261 Ry
     Harris-Foulkes estimate   =   -3594.63983095 Ry
     estimated scf accuracy    <   12776.62735280 Ry

     iteration #  6     ecut=    50.00 Ry     beta= 0.70
     Davidson diagonalization with overlap
     ethr =  1.00E-02,  avg # of iterations = 14.3

     negative rho (up, down):  3.322E+00 0.000E+00

     total cpu time spent up to now is      901.8 secs

     total energy              =   -1831.20083826 Ry
     Harris-Foulkes estimate   =   -3156.42335481 Ry
     estimated scf accuracy    <    9662.30894328 Ry

     iteration #  7     ecut=    50.00 Ry     beta= 0.70
     Davidson diagonalization with overlap
     ethr =  1.00E-02,  avg # of iterations = 14.2

     negative rho (up, down):  1.068E+00 0.000E+00

     total cpu time spent up to now is     1017.1 secs

     total energy              =   -1736.53533931 Ry
     Harris-Foulkes estimate   =   -2166.48915214 Ry
     estimated scf accuracy    <    7760.49841300 Ry

     iteration #  8     ecut=    50.00 Ry     beta= 0.70
     Davidson diagonalization with overlap
     ethr =  1.00E-02,  avg # of iterations = 12.2

     negative rho (up, down):  4.256E-01 0.000E+00

     total cpu time spent up to now is     1106.4 secs

     total energy              =   -1640.40297926 Ry
     Harris-Foulkes estimate   =   -1976.57178638 Ry
     estimated scf accuracy    <    6551.42554128 Ry

     iteration #  9     ecut=    50.00 Ry     beta= 0.70
     Davidson diagonalization with overlap
     ethr =  1.00E-02,  avg # of iterations =  4.1

     negative rho (up, down):  2.611E-01 0.000E+00

     total cpu time spent up to now is     1141.6 secs

     total energy              =   -1777.81232093 Ry
     Harris-Foulkes estimate   =   -1645.85705631 Ry
     estimated scf accuracy    <    5412.21207605 Ry

     iteration # 10     ecut=    50.00 Ry     beta= 0.70
     Davidson diagonalization with overlap
     ethr =  1.00E-02,  avg # of iterations =  8.7

     negative rho (up, down):  1.491E+01 0.000E+00

     total cpu time spent up to now is     1193.6 secs

     total energy              =    5201.47207591 Ry
     Harris-Foulkes estimate   =   -1842.71786240 Ry
     estimated scf accuracy    <    9881.27811988 Ry

     iteration # 11     ecut=    50.00 Ry     beta= 0.70
     Davidson diagonalization with overlap
     c_bands:  4 eigenvalues not converged
     c_bands:  1 eigenvalues not converged
     c_bands:  1 eigenvalues not converged
     c_bands:  1 eigenvalues not converged
     c_bands:  1 eigenvalues not converged
     ethr =  1.00E-02,  avg # of iterations = 38.8

     negative rho (up, down):  6.368E+00 0.000E+00

     total cpu time spent up to now is     1529.8 secs

     total energy              =   -8588.60956245 Ry
     Harris-Foulkes estimate   =  -22239.82931491 Ry
     estimated scf accuracy    <   50587.01952390 Ry

     iteration # 12     ecut=    50.00 Ry     beta= 0.70
     Davidson diagonalization with overlap
     c_bands:  5 eigenvalues not converged
     c_bands:  4 eigenvalues not converged
     ethr =  1.00E-02,  avg # of iterations = 21.6

     negative rho (up, down):  3.266E+00 0.000E+00

     total cpu time spent up to now is     1645.5 secs

     total energy              =   -3929.45859648 Ry
     Harris-Foulkes estimate   =   -8673.81480595 Ry
     estimated scf accuracy    <   34000.99729733 Ry

     iteration # 13     ecut=    50.00 Ry     beta= 0.70
     Davidson diagonalization with overlap
     c_bands:  1 eigenvalues not converged
     ethr =  1.00E-02,  avg # of iterations = 18.4

     negative rho (up, down):  1.448E+00 0.000E+00

     total cpu time spent up to now is     1746.7 secs

     total energy              =   -2326.38721244 Ry
     Harris-Foulkes estimate   =   -4028.99037720 Ry
     estimated scf accuracy    <   24039.01163423 Ry

     iteration # 14     ecut=    50.00 Ry     beta= 0.70
     Davidson diagonalization with overlap
     ethr =  1.00E-02,  avg # of iterations = 14.9

     negative rho (up, down):  1.219E+00 0.000E+00

     total cpu time spent up to now is     1857.1 secs

     total energy              =    -687.36524060 Ry
     Harris-Foulkes estimate   =   -2492.05378790 Ry
     estimated scf accuracy    <   14186.80100843 Ry

     iteration # 15     ecut=    50.00 Ry     beta= 0.70
     Davidson diagonalization with overlap
     ethr =  1.00E-02,  avg # of iterations = 14.6

     negative rho (up, down):  3.939E-01 0.000E+00

     total cpu time spent up to now is     1974.8 secs

     total energy              =   -1324.19474454 Ry
     Harris-Foulkes estimate   =   -1383.07165063 Ry
     estimated scf accuracy    <    2626.67891712 Ry

     iteration # 16     ecut=    50.00 Ry     beta= 0.70
     Davidson diagonalization with overlap
     ethr =  1.00E-02,  avg # of iterations =  3.7

     negative rho (up, down):  6.314E-02 0.000E+00

     total cpu time spent up to now is     2010.1 secs

     total energy              =   -1313.97522099 Ry
     Harris-Foulkes estimate   =   -1334.40490022 Ry
     estimated scf accuracy    <    2512.06887943 Ry

     iteration # 17     ecut=    50.00 Ry     beta= 0.70
     Davidson diagonalization with overlap
     ethr =  1.00E-02,  avg # of iterations =  7.4

     negative rho (up, down):  5.078E-02 0.000E+00

     total cpu time spent up to now is     2046.0 secs

     total energy              =   -1303.80700359 Ry
     Harris-Foulkes estimate   =   -1321.39595736 Ry
     estimated scf accuracy    <    3368.82482726 Ry

     iteration # 18     ecut=    50.00 Ry     beta= 0.70
     Davidson diagonalization with overlap
     ethr =  1.00E-02,  avg # of iterations =  7.3

     negative rho (up, down):  3.618E+00 0.000E+00

     total cpu time spent up to now is     2095.3 secs

     total energy              =   -2086.41485860 Ry
     Harris-Foulkes estimate   =   -1326.62990316 Ry
     estimated scf accuracy    <    7358.80908103 Ry

     iteration # 19     ecut=    50.00 Ry     beta= 0.70
     Davidson diagonalization with overlap
     ethr =  1.00E-02,  avg # of iterations = 29.6

     negative rho (up, down):  8.086E+00 0.000E+00

     total cpu time spent up to now is     2349.0 secs

     total energy              =   -1245.13664218 Ry
     Harris-Foulkes estimate   =   -5846.74534836 Ry
     estimated scf accuracy    <   32848.78597635 Ry

     iteration # 20     ecut=    50.00 Ry     beta= 0.70
     Davidson diagonalization with overlap
     c_bands:  1 eigenvalues not converged
     c_bands:  2 eigenvalues not converged
     c_bands:  3 eigenvalues not converged
     c_bands:  4 eigenvalues not converged
     c_bands:  3 eigenvalues not converged
     c_bands:  4 eigenvalues not converged
     c_bands:  5 eigenvalues not converged
     c_bands:  1 eigenvalues not converged
     ethr =  1.00E-02,  avg # of iterations = 18.4

     negative rho (up, down):  2.563E+00 0.000E+00

     total cpu time spent up to now is     2472.9 secs

     total energy              =   -2243.02174716 Ry
     Harris-Foulkes estimate   =   -2139.57998900 Ry
     estimated scf accuracy    <   10466.61830963 Ry

     iteration # 21     ecut=    50.00 Ry     beta= 0.70
     Davidson diagonalization with overlap
     c_bands:  1 eigenvalues not converged
     ethr =  1.00E-02,  avg # of iterations = 18.4

     negative rho (up, down):  1.598E+00 0.000E+00

     total cpu time spent up to now is     2592.6 secs

     total energy              =   -1292.58091189 Ry
     Harris-Foulkes estimate   =   -2640.89244882 Ry
     estimated scf accuracy    <   22244.05064565 Ry

     iteration # 22     ecut=    50.00 Ry     beta= 0.70
     Davidson diagonalization with overlap
     ethr =  1.00E-02,  avg # of iterations = 17.8

     negative rho (up, down):  2.078E+00 0.000E+00

     total cpu time spent up to now is     2726.6 secs

     total energy              =   -1253.81429738 Ry
     Harris-Foulkes estimate   =   -2241.60498168 Ry
     estimated scf accuracy    <   10962.96842806 Ry

     iteration # 23     ecut=    50.00 Ry     beta= 0.70
     Davidson diagonalization with overlap
     ethr =  1.00E-02,  avg # of iterations = 13.1

     negative rho (up, down):  9.084E-01 0.000E+00

     total cpu time spent up to now is     2825.9 secs

     total energy              =   -1323.89623618 Ry
     Harris-Foulkes estimate   =   -1522.44911370 Ry
     estimated scf accuracy    <    6073.48283448 Ry

     iteration # 24     ecut=    50.00 Ry     beta= 0.70
     Davidson diagonalization with overlap
     ethr =  1.00E-02,  avg # of iterations =  8.5

     negative rho (up, down):  1.255E+00 0.000E+00

     total cpu time spent up to now is     2883.2 secs

     total energy              =   -1336.70437508 Ry
     Harris-Foulkes estimate   =   -1378.91788317 Ry
     estimated scf accuracy    <    5700.71149872 Ry

     iteration # 25     ecut=    50.00 Ry     beta= 0.70
     Davidson diagonalization with overlap
     ethr =  1.00E-02,  avg # of iterations =  6.2

     negative rho (up, down):  2.108E+00 0.000E+00

     total cpu time spent up to now is     2921.1 secs

     total energy              =   -1351.39390865 Ry
     Harris-Foulkes estimate   =   -1361.57548024 Ry
     estimated scf accuracy    <    7340.46912294 Ry

     iteration # 26     ecut=    50.00 Ry     beta= 0.70
     Davidson diagonalization with overlap
     ethr =  1.00E-02,  avg # of iterations = 14.8

     negative rho (up, down):  8.749E+00 0.000E+00

     total cpu time spent up to now is     3037.7 secs

     total energy              =    -900.58823145 Ry
     Harris-Foulkes estimate   =   -1461.22010269 Ry
     estimated scf accuracy    <    2640.98391538 Ry

     iteration # 27     ecut=    50.00 Ry     beta= 0.70
     Davidson diagonalization with overlap
     c_bands:  1 eigenvalues not converged
     ethr =  1.00E-02,  avg # of iterations = 16.2

     negative rho (up, down):  2.924E+00 0.000E+00

     total cpu time spent up to now is     3148.5 secs

     total energy              =    -827.50905879 Ry
     Harris-Foulkes estimate   =   -1617.46704222 Ry
     estimated scf accuracy    <   11476.96784588 Ry

     iteration # 28     ecut=    50.00 Ry     beta= 0.70
     Davidson diagonalization with overlap
     ethr =  1.00E-02,  avg # of iterations = 17.0

     negative rho (up, down):  1.880E+00 0.000E+00

     total cpu time spent up to now is     3296.2 secs

     total energy              =    -238.07250313 Ry
     Harris-Foulkes estimate   =   -2836.13465022 Ry
     estimated scf accuracy    <   16796.18622828 Ry

     iteration # 29     ecut=    50.00 Ry     beta= 0.70
     Davidson diagonalization with overlap
     ethr =  1.00E-02,  avg # of iterations = 14.6

     negative rho (up, down):  8.782E-01 0.000E+00

     total cpu time spent up to now is     3426.7 secs

     total energy              =   -1030.87677293 Ry
     Harris-Foulkes estimate   =   -1266.12021942 Ry
     estimated scf accuracy    <    8644.99550414 Ry

     iteration # 30     ecut=    50.00 Ry     beta= 0.70
     Davidson diagonalization with overlap
     ethr =  1.00E-02,  avg # of iterations = 15.6

     negative rho (up, down):  6.809E-01 0.000E+00

     total cpu time spent up to now is     3534.7 secs

     total energy              =   -1117.09767534 Ry
     Harris-Foulkes estimate   =   -1167.30526477 Ry
     estimated scf accuracy    <    1095.32870793 Ry

     iteration # 31     ecut=    50.00 Ry     beta= 0.70
     Davidson diagonalization with overlap
     ethr =  1.00E-02,  avg # of iterations =  6.7

     negative rho (up, down):  4.442E-01 0.000E+00

     total cpu time spent up to now is     3576.4 secs

     total energy              =   -1048.03441148 Ry
     Harris-Foulkes estimate   =   -1131.57766401 Ry
     estimated scf accuracy    <     713.86095208 Ry

     iteration # 32     ecut=    50.00 Ry     beta= 0.70
     Davidson diagonalization with overlap
     ethr =  1.00E-02,  avg # of iterations =  7.2

     negative rho (up, down):  7.133E-01 0.000E+00

     total cpu time spent up to now is     3633.0 secs

     total energy              =   -1077.14177844 Ry
     Harris-Foulkes estimate   =   -1111.61957016 Ry
     estimated scf accuracy    <     931.58208101 Ry

     iteration # 33     ecut=    50.00 Ry     beta= 0.70
     Davidson diagonalization with overlap
     ethr =  1.00E-02,  avg # of iterations =  4.8

     negative rho (up, down):  2.565E+00 0.000E+00

     total cpu time spent up to now is     3669.0 secs

     total energy              =   -1010.76873120 Ry
     Harris-Foulkes estimate   =   -1084.17590633 Ry
     estimated scf accuracy    <     445.50032790 Ry

     iteration # 34     ecut=    50.00 Ry     beta= 0.70
     Davidson diagonalization with overlap
     ethr =  1.00E-02,  avg # of iterations =  6.7

     negative rho (up, down):  1.223E+00 0.000E+00

     total cpu time spent up to now is     3736.8 secs

     total energy              =   -1037.22370056 Ry
     Harris-Foulkes estimate   =   -1114.88874520 Ry
     estimated scf accuracy    <    1716.97765322 Ry

     iteration # 35     ecut=    50.00 Ry     beta= 0.70
     Davidson diagonalization with overlap
     ethr =  1.00E-02,  avg # of iterations =  9.6

     negative rho (up, down):  7.886E-01 0.000E+00

     total cpu time spent up to now is     3792.6 secs

     total energy              =   -1057.91016469 Ry
     Harris-Foulkes estimate   =   -1068.09390691 Ry
     estimated scf accuracy    <     137.24403312 Ry

     iteration # 36     ecut=    50.00 Ry     beta= 0.70
     Davidson diagonalization with overlap
     ethr =  1.00E-02,  avg # of iterations =  3.1

     negative rho (up, down):  3.297E-01 0.000E+00

     total cpu time spent up to now is     3824.9 secs

     total energy              =   -1056.90802714 Ry
     Harris-Foulkes estimate   =   -1064.22689882 Ry
     estimated scf accuracy    <     215.91611653 Ry

     iteration # 37     ecut=    50.00 Ry     beta= 0.70
     Davidson diagonalization with overlap
     ethr =  1.00E-02,  avg # of iterations =  2.8

     negative rho (up, down):  2.210E-01 0.000E+00

     total cpu time spent up to now is     3854.2 secs

     total energy              =   -1059.88358038 Ry
     Harris-Foulkes estimate   =   -1061.29875492 Ry
     estimated scf accuracy    <       5.99333183 Ry

     iteration # 38     ecut=    50.00 Ry     beta= 0.70
     Davidson diagonalization with overlap
     ethr =  3.41E-03,  avg # of iterations =  4.4

     negative rho (up, down):  7.015E-02 0.000E+00

     total cpu time spent up to now is     3884.9 secs

     total energy              =   -1059.77540461 Ry
     Harris-Foulkes estimate   =   -1060.93187922 Ry
     estimated scf accuracy    <      22.87217894 Ry

     iteration # 39     ecut=    50.00 Ry     beta= 0.70
     Davidson diagonalization with overlap
     ethr =  3.41E-03,  avg # of iterations =  2.7

     negative rho (up, down):  2.485E-03 0.000E+00

     total cpu time spent up to now is     3914.1 secs

     total energy              =   -1058.74837774 Ry
     Harris-Foulkes estimate   =   -1061.73727061 Ry
     estimated scf accuracy    <      30.18708105 Ry

     iteration # 40     ecut=    50.00 Ry     beta= 0.70
     Davidson diagonalization with overlap
     ethr =  3.41E-03,  avg # of iterations =  3.2

     negative rho (up, down):  7.027E-04 0.000E+00

     total cpu time spent up to now is     3944.1 secs

     total energy              =   -1059.72960361 Ry
     Harris-Foulkes estimate   =   -1061.04821657 Ry
     estimated scf accuracy    <      11.29872226 Ry

     iteration # 41     ecut=    50.00 Ry     beta= 0.70
     Davidson diagonalization with overlap
     ethr =  3.41E-03,  avg # of iterations =  1.0

     negative rho (up, down):  1.234E-02 0.000E+00

     total cpu time spent up to now is     3971.5 secs

     total energy              =   -1060.17672100 Ry
     Harris-Foulkes estimate   =   -1060.44931534 Ry
     estimated scf accuracy    <       2.25969795 Ry

     iteration # 42     ecut=    50.00 Ry     beta= 0.70
     Davidson diagonalization with overlap
     ethr =  1.28E-03,  avg # of iterations =  1.1

     negative rho (up, down):  2.221E-03 0.000E+00

     total cpu time spent up to now is     3998.9 secs

     total energy              =   -1060.25596950 Ry
     Harris-Foulkes estimate   =   -1060.41668247 Ry
     estimated scf accuracy    <       4.77346348 Ry

     iteration # 43     ecut=    50.00 Ry     beta= 0.70
     Davidson diagonalization with overlap
     ethr =  1.28E-03,  avg # of iterations =  2.8

     negative rho (up, down):  2.627E-03 0.000E+00

     total cpu time spent up to now is     4027.6 secs

     total energy              =   -1060.30466625 Ry
     Harris-Foulkes estimate   =   -1060.37980011 Ry
     estimated scf accuracy    <       1.24283421 Ry

     iteration # 44     ecut=    50.00 Ry     beta= 0.70
     Davidson diagonalization with overlap
     ethr =  7.06E-04,  avg # of iterations =  2.9

     negative rho (up, down):  2.443E-03 0.000E+00

     total cpu time spent up to now is     4056.5 secs

     total energy              =   -1060.34574910 Ry
     Harris-Foulkes estimate   =   -1060.35673628 Ry
     estimated scf accuracy    <       0.08273920 Ry

     iteration # 45     ecut=    50.00 Ry     beta= 0.70
     Davidson diagonalization with overlap
     ethr =  4.70E-05,  avg # of iterations =  9.1

     negative rho (up, down):  6.444E-04 0.000E+00

     total cpu time spent up to now is     4093.0 secs

     total energy              =   -1060.33455790 Ry
     Harris-Foulkes estimate   =   -1060.35756265 Ry
     estimated scf accuracy    <       0.05757335 Ry

     iteration # 46     ecut=    50.00 Ry     beta= 0.70
     Davidson diagonalization with overlap
     ethr =  3.27E-05,  avg # of iterations =  8.5

     negative rho (up, down):  6.450E-04 0.000E+00

     total cpu time spent up to now is     4139.1 secs

     total energy              =   -1060.01635770 Ry
     Harris-Foulkes estimate   =   -1060.67972382 Ry
     estimated scf accuracy    <      20.54954454 Ry

     iteration # 47     ecut=    50.00 Ry     beta= 0.70
     Davidson diagonalization with overlap
     ethr =  3.27E-05,  avg # of iterations =  6.8

     negative rho (up, down):  5.618E-04 0.000E+00

     total cpu time spent up to now is     4181.2 secs

     total energy              =   -1060.35387250 Ry
     Harris-Foulkes estimate   =   -1060.35751724 Ry
     estimated scf accuracy    <       0.06857652 Ry

     iteration # 48     ecut=    50.00 Ry     beta= 0.70
     Davidson diagonalization with overlap
     ethr =  3.27E-05,  avg # of iterations =  1.0

     negative rho (up, down):  4.763E-04 0.000E+00

     total cpu time spent up to now is     4208.6 secs

     total energy              =   -1060.35463647 Ry
     Harris-Foulkes estimate   =   -1060.35575738 Ry
     estimated scf accuracy    <       0.03442862 Ry

     iteration # 49     ecut=    50.00 Ry     beta= 0.70
     Davidson diagonalization with overlap
     ethr =  1.96E-05,  avg # of iterations =  1.0

     negative rho (up, down):  4.454E-04 0.000E+00

     total cpu time spent up to now is     4236.0 secs

     total energy              =   -1060.35419673 Ry
     Harris-Foulkes estimate   =   -1060.35627844 Ry
     estimated scf accuracy    <       0.03615906 Ry

     iteration # 50     ecut=    50.00 Ry     beta= 0.70
     Davidson diagonalization with overlap
     ethr =  1.96E-05,  avg # of iterations =  1.0

     negative rho (up, down):  4.136E-04 0.000E+00

     total cpu time spent up to now is     4263.3 secs

     total energy              =   -1060.35491994 Ry
     Harris-Foulkes estimate   =   -1060.35571472 Ry
     estimated scf accuracy    <       0.00596477 Ry

     iteration # 51     ecut=    50.00 Ry     beta= 0.70
     Davidson diagonalization with overlap
     ethr =  3.39E-06,  avg # of iterations =  3.5

     negative rho (up, down):  4.129E-04 0.000E+00

     total cpu time spent up to now is     4292.2 secs

     total energy              =   -1060.35508051 Ry
     Harris-Foulkes estimate   =   -1060.35573162 Ry
     estimated scf accuracy    <       0.01117616 Ry

     iteration # 52     ecut=    50.00 Ry     beta= 0.70
     Davidson diagonalization with overlap
     ethr =  3.39E-06,  avg # of iterations =  1.0

     negative rho (up, down):  3.812E-04 0.000E+00

     total cpu time spent up to now is     4319.6 secs

     total energy              =   -1060.35537550 Ry
     Harris-Foulkes estimate   =   -1060.35542311 Ry
     estimated scf accuracy    <       0.00074977 Ry

     iteration # 53     ecut=    50.00 Ry     beta= 0.70
     Davidson diagonalization with overlap
     c_bands:  1 eigenvalues not converged
     ethr =  4.26E-07,  avg # of iterations =  4.1

     negative rho (up, down):  3.799E-04 0.000E+00

     total cpu time spent up to now is     4349.1 secs

     total energy              =   -1060.35536570 Ry
     Harris-Foulkes estimate   =   -1060.35545504 Ry
     estimated scf accuracy    <       0.00233743 Ry

     iteration # 54     ecut=    50.00 Ry     beta= 0.70
     Davidson diagonalization with overlap
     ethr =  4.26E-07,  avg # of iterations =  1.0

     negative rho (up, down):  3.694E-04 0.000E+00

     total cpu time spent up to now is     4376.5 secs

     total energy              =   -1060.35541109 Ry
     Harris-Foulkes estimate   =   -1060.35543320 Ry
     estimated scf accuracy    <       0.00036012 Ry

     iteration # 55     ecut=    50.00 Ry     beta= 0.70
     Davidson diagonalization with overlap
     ethr =  2.05E-07,  avg # of iterations =  1.2

     negative rho (up, down):  3.635E-04 0.000E+00

     total cpu time spent up to now is     4404.0 secs

     total energy              =   -1060.35542239 Ry
     Harris-Foulkes estimate   =   -1060.35542763 Ry
     estimated scf accuracy    <       0.00011558 Ry

     iteration # 56     ecut=    50.00 Ry     beta= 0.70
     Davidson diagonalization with overlap
     ethr =  6.57E-08,  avg # of iterations =  1.2

     negative rho (up, down):  3.573E-04 0.000E+00

     total cpu time spent up to now is     4431.5 secs

     total energy              =   -1060.35542475 Ry
     Harris-Foulkes estimate   =   -1060.35543086 Ry
     estimated scf accuracy    <       0.00013224 Ry

     iteration # 57     ecut=    50.00 Ry     beta= 0.70
     Davidson diagonalization with overlap
     ethr =  6.57E-08,  avg # of iterations =  1.0

     negative rho (up, down):  3.592E-04 0.000E+00

     total cpu time spent up to now is     4458.9 secs

     total energy              =   -1060.35542770 Ry
     Harris-Foulkes estimate   =   -1060.35542895 Ry
     estimated scf accuracy    <       0.00000795 Ry

     iteration # 58     ecut=    50.00 Ry     beta= 0.70
     Davidson diagonalization with overlap
     ethr =  4.52E-09,  avg # of iterations =  4.0

     negative rho (up, down):  3.575E-04 0.000E+00

     total cpu time spent up to now is     4489.7 secs

     total energy              =   -1060.35542851 Ry
     Harris-Foulkes estimate   =   -1060.35542966 Ry
     estimated scf accuracy    <       0.00003663 Ry

     iteration # 59     ecut=    50.00 Ry     beta= 0.70
     Davidson diagonalization with overlap
     ethr =  4.52E-09,  avg # of iterations =  1.0

     negative rho (up, down):  3.573E-04 0.000E+00

     total cpu time spent up to now is     4517.1 secs

     total energy              =   -1060.35542917 Ry
     Harris-Foulkes estimate   =   -1060.35542941 Ry
     estimated scf accuracy    <       0.00000417 Ry

     iteration # 60     ecut=    50.00 Ry     beta= 0.70
     Davidson diagonalization with overlap
     ethr =  2.37E-09,  avg # of iterations =  1.0

     negative rho (up, down):  3.565E-04 0.000E+00

     total cpu time spent up to now is     4544.5 secs

     total energy              =   -1060.35542931 Ry
     Harris-Foulkes estimate   =   -1060.35542945 Ry
     estimated scf accuracy    <       0.00000228 Ry

     iteration # 61     ecut=    50.00 Ry     beta= 0.70
     Davidson diagonalization with overlap
     ethr =  1.30E-09,  avg # of iterations =  2.0

     negative rho (up, down):  3.564E-04 0.000E+00

     total cpu time spent up to now is     4572.6 secs

     total energy              =   -1060.35542909 Ry
     Harris-Foulkes estimate   =   -1060.35542987 Ry
     estimated scf accuracy    <       0.00001419 Ry

     iteration # 62     ecut=    50.00 Ry     beta= 0.70
     Davidson diagonalization with overlap
     ethr =  1.30E-09,  avg # of iterations =  1.2

     negative rho (up, down):  3.564E-04 0.000E+00

     total cpu time spent up to now is     4600.1 secs

     total energy              =   -1060.35542943 Ry
     Harris-Foulkes estimate   =   -1060.35542951 Ry
     estimated scf accuracy    <       0.00000084 Ry

     iteration # 63     ecut=    50.00 Ry     beta= 0.70
     Davidson diagonalization with overlap
     ethr =  4.76E-10,  avg # of iterations =  1.0

     negative rho (up, down):  3.560E-04 0.000E+00

     total cpu time spent up to now is     4627.3 secs

     End of self-consistent calculation

          k = 0.0000 0.0000 0.0000 ( 25483 PWs)   bands (ev):

   -16.7446 -14.7548  -9.4834  -9.4834  -9.4604  -8.4850  -8.4596  -8.4596
    -4.3792  -3.9138  -3.4320  -3.4320  -3.2829  -2.6076  -1.9537  -1.5806
    -1.5805  -1.5771  -1.4033  -1.2957  -0.2295  -0.1128  -0.1128  -0.0308
    -0.0308   0.0842   0.3900   0.4662   0.4662   0.5584   0.5584   0.6523
     0.7425   0.7425   0.9813   0.9955   1.0538   1.0539   1.8368   1.8368
     1.9164   1.9164   1.9780   2.0237   2.0237   2.1063   2.1063   2.2223
     2.2596   2.2596   2.3411   2.3484   2.3484   2.3892   2.3892   2.4492
     2.4925   2.6701   2.6701   2.8699   2.8894   2.8894   2.9120   3.0468
     3.0468   3.0987   3.0987   3.1269   3.1270   3.3298   3.4748   4.3670
     4.3900   4.3902   4.3902   4.5207   4.5207   4.6062   4.6062   4.7139
     4.7139   4.9546   4.9547   4.9957   4.9957   5.1808   5.6911   5.6911
     5.7424   5.7462   5.9596   5.9596   6.0774   6.1114   6.1114   6.1790
     6.1872   6.1872   6.2021   6.3334   6.3859   6.3859   6.6087   6.6087
     7.8126   8.4028

          k = 0.0000 0.1283 0.0000 ( 25406 PWs)   bands (ev):

   -16.7422 -14.6825 -10.2475  -9.7100  -9.6999  -8.1192  -8.1075  -7.5804
    -4.2449  -3.8721  -3.4772  -3.4405  -3.1515  -2.5380  -1.8282  -1.8050
    -1.8035  -1.5039  -1.2829  -1.1653  -0.4111  -0.3324  -0.2609  -0.2047
     0.0158   0.1698   0.2240   0.3114   0.3721   0.6189   0.6643   0.7035
     0.7251   0.8199   0.8400   0.9500   1.0993   1.1718   1.5387   1.6800
     1.7499   1.8101   1.8619   1.9142   1.9691   1.9765   2.0272   2.0776
     2.0890   2.1908   2.2468   2.3024   2.3364   2.3770   2.4091   2.4549
     2.5161   2.5569   2.7493   2.8587   2.9119   2.9676   2.9865   3.0233
     3.0533   3.1364   3.1946   3.2686   3.3968   3.4682   3.4726   4.0581
     4.2479   4.3236   4.3502   4.3855   4.4003   4.6594   4.7014   4.7274
     4.7741   4.8301   4.9373   5.0709   5.1097   5.1610   5.4499   5.4913
     5.7032   5.7384   5.7939   6.0402   6.1156   6.1704   6.2730   6.3103
     6.3665   6.4295   6.4938   6.5143   6.5291   6.6924   6.9143   7.3772
     8.0074   8.5385

          k = 0.0000 0.2566 0.0000 ( 25412 PWs)   bands (ev):

   -16.7364 -14.4699 -11.2597 -10.0523 -10.0458  -7.4151  -7.4070  -6.2451
    -3.8968  -3.7341  -3.5705  -3.4621  -2.7835  -2.4096  -2.4065  -2.3250
    -1.4699  -1.2888  -0.9564  -0.8036  -0.7639  -0.6987  -0.4717  -0.4352
    -0.1539  -0.0799   0.0128   0.0625   0.1021   0.4874   0.5586   0.6333
     0.7176   0.7825   0.8717   1.0017   1.0747   1.1212   1.1682   1.1862
     1.2585   1.4627   1.5403   1.5699   1.5957   1.7491   1.8937   2.0429
     2.1055   2.1973   2.2154   2.2451   2.2571   2.3061   2.4533   2.5188
     2.6121   2.6954   2.7677   2.8179   2.9749   2.9894   3.0916   3.1053
     3.1360   3.1921   3.2304   3.4280   3.4517   3.6215   3.9134   4.0645
     4.1018   4.1484   4.2471   4.2690   4.2974   4.3975   4.5128   4.5873
     4.8544   4.9126   4.9340   5.1114   5.1315   5.3666   5.5204   5.5269
     5.6647   5.7773   5.9022   6.2607   6.3141   6.3440   6.4050   6.4792
     6.5363   6.6357   6.7790   6.8385   6.8882   7.3678   7.9824   8.1456
     8.1951   8.4724

          k = 0.0000 0.3849 0.0000 ( 25390 PWs)   bands (ev):

   -16.7298 -14.1091 -12.1714 -10.3085 -10.3034  -6.5977  -6.5906  -4.8031
    -3.7273  -3.6825  -3.4888  -3.2250  -3.2249  -3.1797  -2.2321  -1.9655
    -1.1890  -1.0003  -0.9644  -0.9347  -0.8734  -0.6905  -0.5497  -0.4618
    -0.4363  -0.4152  -0.2988  -0.2124  -0.1289   0.1042   0.1328   0.2354
     0.3891   0.5118   0.5699   0.6940   0.9128   0.9628   1.0530   1.1695
     1.2342   1.2827   1.4403   1.4887   1.5283   1.5918   1.8376   1.9351
     1.9617   2.0599   2.0795   2.1194   2.2892   2.3096   2.3600   2.5110
     2.5672   2.6109   2.7824   2.8859   2.9264   3.0620   3.1276   3.2304
     3.3219   3.3838   3.4918   3.5124   3.5722   3.7463   3.8995   4.0294
     4.0761   4.1556   4.2160   4.3063   4.3915   4.4889   4.6456   4.8553
     4.9777   4.9908   5.0203   5.1164   5.3732   5.4424   5.6183   5.7196
     5.9434   5.9814   6.1697   6.2860   6.3199   6.4019   6.4351   6.4829
     6.6450   6.7699   6.8950   7.1380   7.2268   7.2915   7.3126   7.6131
     8.0421   8.1183

          k = 0.0000 0.5132 0.0000 ( 25334 PWs)   bands (ev):

   -16.7255 -13.6042 -12.9570 -10.4404 -10.4357  -5.8485  -5.8411  -4.0160
    -4.0019  -3.7460  -3.6465  -3.4991  -3.3121  -2.4181  -1.8324  -1.6517
    -1.5606  -1.4379  -1.4143  -1.1821  -1.0279  -0.7301  -0.7106  -0.6625
    -0.4844  -0.4657  -0.3682  -0.2957  -0.0102   0.0974   0.1039   0.1253
     0.1828   0.2831   0.4739   0.6012   0.7122   0.7977   0.9316   0.9634
     1.0904   1.1650   1.2640   1.4639   1.6007   1.8291   1.8491   1.8862
     1.9340   2.0006   2.0407   2.1058   2.1549   2.2097   2.2671   2.3362
     2.4019   2.4135   2.5709   2.7626   2.9192   3.2112   3.2781   3.3600
     3.4179   3.5173   3.6469   3.7896   3.9125   3.9258   3.9945   4.0368
     4.1781   4.2318   4.3013   4.3898   4.4945   4.6503   4.8067   4.8375
     5.0626   5.2252   5.3093   5.5276   5.5706   5.6044   5.7567   5.8041
     5.9228   6.0849   6.1621   6.1991   6.2355   6.2624   6.3525   6.3819
     6.4291   6.5064   6.6396   6.7430   6.8440   7.1069   7.5057   7.6039
     7.6321   8.0015

          k = 0.1111 0.1925 0.0000 ( 25417 PWs)   bands (ev):

   -16.7382 -14.5416 -10.7194 -10.7030  -9.2826  -8.2787  -6.8988  -6.8835
    -3.9969  -3.7891  -3.5418  -3.4591  -2.9036  -2.4838  -2.3959  -1.6584
    -1.6562  -1.5866  -1.0600  -0.9190  -0.6103  -0.5218  -0.5128  -0.4573
    -0.0647   0.0617   0.0973   0.1767   0.2191   0.2666   0.6338   0.6858
     0.8371   0.8571   1.0075   1.0244   1.0796   1.1273   1.1543   1.3606
     1.5242   1.5444   1.5796   1.6109   1.6182   1.7036   1.8280   2.0576
     2.0960   2.1738   2.1877   2.2272   2.2592   2.3863   2.4554   2.5463
     2.6685   2.6823   2.8192   2.8447   2.9295   3.0275   3.0469   3.1186
     3.1752   3.1914   3.3644   3.4728   3.5141   3.5460   3.6560   3.9021
     3.9079   4.1277   4.2308   4.3219   4.3380   4.4664   4.6305   4.7738
     4.8681   4.8842   4.9802   5.0909   5.1489   5.1993   5.3797   5.4718
     5.7188   5.7466   5.8764   6.0009   6.2591   6.2978   6.3174   6.4072
     6.4092   6.6538   6.6853   6.7013   7.0785   7.4505   7.5017   7.9361
     8.4111   8.6455

          k = 0.1111 0.3208 0.0000 ( 25419 PWs)   bands (ev):

   -16.7320 -14.2543 -11.6788 -11.0521  -9.3177  -7.7642  -6.1029  -5.5023
    -3.7641  -3.6440  -3.4911  -3.4206  -3.3826  -2.4476  -2.1832  -2.1120
    -1.3691  -1.1680  -1.0078  -0.8497  -0.7954  -0.6734  -0.5991  -0.4878
    -0.3425  -0.2541  -0.1665  -0.0232   0.0158   0.0600   0.1764   0.3657
     0.5653   0.6367   0.6679   0.8150   0.8650   1.0770   1.1598   1.1930
     1.3220   1.3473   1.3688   1.4016   1.4323   1.5542   1.6689   1.7128
     1.9634   2.1498   2.2038   2.3022   2.3710   2.5405   2.6133   2.6686
     2.7397   2.7961   2.8764   2.9487   3.0012   3.0504   3.0988   3.2070
     3.2479   3.3141   3.3806   3.4296   3.5177   3.6967   3.7696   3.8295
     4.0331   4.1503   4.2092   4.2379   4.3600   4.3983   4.4503   4.8209
     4.8799   5.0328   5.0601   5.1683   5.2369   5.3022   5.5553   5.6111
     5.6549   5.8811   5.9760   6.3168   6.3467   6.3636   6.3925   6.4377
     6.4780   6.6972   6.7782   6.7996   7.5864   7.7461   7.7953   8.0091
     8.1059   8.2328

          k = 0.1111 0.4491 0.0000 ( 25332 PWs)   bands (ev):

   -16.7265 -13.8214 -12.5266 -11.2594  -9.4591  -6.9765  -5.2998  -4.3462
    -4.0479  -3.7095  -3.6704  -3.5182  -2.8862  -2.7465  -1.8740  -1.6668
    -1.3593  -1.2681  -1.1704  -1.0634  -0.9468  -0.8570  -0.7218  -0.6263
    -0.5554  -0.4264  -0.2996  -0.2571  -0.1707  -0.0353   0.0437   0.1613
     0.1911   0.2429   0.3224   0.5692   0.6944   0.8799   1.0479   1.1363
     1.1681   1.2285   1.2812   1.3163   1.4599   1.6607   1.7045   1.7506
     2.0092   2.1065   2.2411   2.2991   2.3257   2.3973   2.4385   2.6997
     2.7611   2.7922   2.8257   2.9359   2.9626   3.0305   3.2015   3.2619
     3.3582   3.4069   3.5170   3.5773   3.6873   3.7379   3.8149   4.0407
     4.1255   4.2364   4.3076   4.3956   4.5494   4.6044   4.7458   4.8804
     5.0421   5.0941   5.1379   5.3046   5.3846   5.4862   5.5341   5.8875
     5.9666   6.0057   6.0809   6.1855   6.2282   6.3335   6.4182   6.4686
     6.5017   6.5400   6.6235   6.6998   6.7927   6.9913   7.1607   7.3176
     7.7909   8.0086

          k = 0.1111 0.5774 0.0000 ( 25272 PWs)   bands (ev):

   -16.7243 -13.2508 -13.2355 -11.3288  -9.5145  -6.4732  -4.8969  -4.8311
    -3.7404  -3.6524  -3.5318  -3.3232  -2.5738  -2.5714  -2.0304  -1.9404
    -1.4772  -1.3609  -1.2204  -1.1690  -1.0893  -0.9883  -0.7562  -0.6456
    -0.4878  -0.4447  -0.4172  -0.4144  -0.3556  -0.0958  -0.0164   0.0881
     0.1654   0.2951   0.4825   0.4913   0.6038   0.8398   0.9545   0.9567
     1.0734   1.1948   1.2430   1.2470   1.4234   1.6430   1.8882   1.9371
     1.9998   2.0837   2.2029   2.2085   2.3653   2.4022   2.5260   2.5262
     2.5505   2.6772   2.7538   2.8030   2.9827   3.1215   3.1392   3.3339
     3.3413   3.4792   3.6125   3.6146   3.8834   3.9078   4.1384   4.1456
     4.2009   4.3412   4.4599   4.5115   4.5513   4.6599   4.7512   4.9083
     5.2044   5.2197   5.3881   5.3902   5.5402   5.5902   5.7084   5.7196
     5.8583   5.8626   5.9900   6.0057   6.1791   6.2303   6.2912   6.3319
     6.4479   6.4756   6.5610   6.5958   6.6107   6.7381   7.0069   7.2933
     7.4445   7.7924

          k = 0.2222 0.3849 0.0000 ( 25369 PWs)   bands (ev):

   -16.7269 -13.8915 -11.9685 -11.9520  -8.7160  -7.7846  -4.7195  -4.7043
    -4.4506  -3.6893  -3.6714  -3.5409  -2.8667  -1.9775  -1.8107  -1.8091
    -1.7405  -1.2880  -1.2166  -0.8708  -0.8566  -0.8357  -0.8330  -0.5972
    -0.5512  -0.3937  -0.3452  -0.2546  -0.0940  -0.0712   0.0764   0.1006
     0.2398   0.3562   0.3581   0.4076   0.5412   0.5935   0.7738   1.0940
     1.2063   1.2705   1.3659   1.4563   1.5597   1.6490   1.7498   1.8294
     2.2250   2.2776   2.3205   2.3614   2.3746   2.5052   2.6041   2.6699
     2.7938   2.9066   2.9318   3.0740   3.1374   3.1578   3.2137   3.3500
     3.3831   3.4565   3.4641   3.4801   3.5285   3.7024   3.8990   3.9273
     4.0628   4.1829   4.1934   4.2882   4.3427   4.5071   4.5675   4.8910
     5.0917   5.2521   5.2572   5.2977   5.3488   5.3708   5.3831   5.5247
     5.7778   5.8797   5.9472   5.9938   6.1355   6.1762   6.3305   6.3594
     6.6615   6.6934   6.7547   6.8606   6.9364   7.0102   7.1432   7.2210
     7.4248   7.7732

          k = 0.2222 0.5132 0.0000 ( 25303 PWs)   bands (ev):

   -16.7236 -13.3880 -12.7411 -12.1001  -8.5631  -7.3002  -5.3320  -4.0303
    -3.7032  -3.6406  -3.5834  -3.3048  -2.3500  -2.2224  -1.9820  -1.6512
    -1.5340  -1.4487  -1.2959  -1.2023  -1.0900  -1.0471  -0.7837  -0.7012
    -0.6501  -0.6442  -0.5027  -0.4810  -0.3095  -0.2684  -0.1489   0.0210
     0.0906   0.2228   0.2412   0.3234   0.3990   0.4434   0.6771   0.9708
     1.1580   1.2281   1.3884   1.5253   1.7736   1.9002   1.9185   2.0055
     2.0988   2.1831   2.2560   2.5075   2.5717   2.6347   2.6904   2.7351
     2.7689   2.8209   2.8612   2.9998   3.0239   3.1544   3.2221   3.3248
     3.3559   3.4362   3.5389   3.6719   3.7311   3.8723   4.0528   4.1394
     4.2124   4.3297   4.4886   4.5477   4.6735   4.7051   4.8436   4.8909
     5.0260   5.0762   5.2135   5.2499   5.4975   5.5465   5.6284   5.6473
     5.6749   5.7063   5.8253   5.8682   5.9371   6.0112   6.0540   6.1528
     6.2354   6.2841   6.3548   6.5247   6.5839   6.7263   6.7541   6.8173
     7.0065   7.5525

          k = 0.3333 0.5774 0.0000 ( 25284 PWs)   bands (ev):

   -16.7224 -12.8272 -12.8033 -12.8032  -7.7763  -7.7763  -5.7943  -3.6561
    -3.6561  -3.6280  -2.9069  -2.9068  -2.8969  -1.8047  -1.8047  -1.6994
    -1.5821  -1.5821  -1.5809  -1.2305  -1.2305  -1.1090  -0.8048  -0.8047
    -0.7345  -0.5952  -0.5951  -0.4943  -0.3928  -0.3928  -0.2748  -0.1385
    -0.1385   0.1276   0.1930   0.1931   0.3303   0.5104   0.5104   0.8780
     1.2611   1.2611   1.4367   2.0060   2.0060   2.0472   2.0472   2.0638
     2.1091   2.1826   2.1827   2.2571   2.6597   2.6597   2.8286   2.8331
     2.8398   2.8398   2.9461   2.9461   3.0126   3.1948   3.1948   3.4193
     3.4698   3.4698   3.7937   3.7978   3.7978   3.9548   3.9971   3.9971
     4.2159   4.4453   4.7180   4.7180   4.7865   4.7865   4.7979   5.0409
     5.0409   5.1689   5.1909   5.1909   5.3255   5.3255   5.3268   5.5452
     5.5452   5.5678   5.5852   5.7961   5.8135   5.8135   5.8979   5.8979
     6.1143   6.1143   6.1350   6.3497   6.3497   6.3566   6.8682   6.8742
     6.8742   7.8928

     the Fermi energy is     5.6936 ev

!    total energy              =   -1060.35542953 Ry
     Harris-Foulkes estimate   =   -1060.35542948 Ry
     estimated scf accuracy    <       0.00000004 Ry

     The total energy is the sum of the following terms:

     one-electron contribution =   -9470.98204500 Ry
     hartree contribution      =    4854.94812821 Ry
     xc contribution           =    -503.87612511 Ry
     ewald contribution        =    4059.55482143 Ry
     smearing contrib. (-TS)   =      -0.00020905 Ry

     convergence has been achieved in  63 iterations

     Writing output data file CsC8_Ir111_9x9x1.save/
 
     init_run     :     37.32s CPU     19.39s WALL (       1 calls)
     electrons    :   9122.22s CPU   4607.38s WALL (       1 calls)

     Called by init_run:
     wfcinit      :     31.35s CPU     15.86s WALL (       1 calls)
     potinit      :      4.17s CPU      2.32s WALL (       1 calls)
     hinit0       :      0.75s CPU      0.51s WALL (       1 calls)

     Called by electrons:
     c_bands      :   8149.61s CPU   4100.10s WALL (      63 calls)
     sum_band     :    675.82s CPU    347.42s WALL (      63 calls)
     v_of_rho     :    225.60s CPU    118.81s WALL (      64 calls)
     newd         :     61.53s CPU     36.32s WALL (      64 calls)
     mix_rho      :      9.24s CPU      4.68s WALL (      63 calls)

     Called by c_bands:
     init_us_2    :     32.46s CPU     16.39s WALL (    1524 calls)
     cegterg      :   8022.11s CPU   4036.13s WALL (     819 calls)

     Called by sum_band:
     sum_band:bec :      0.20s CPU      0.18s WALL (     756 calls)
     addusdens    :     74.86s CPU     44.59s WALL (      63 calls)

     Called by *egterg:
     h_psi        :   6039.16s CPU   3043.21s WALL (    7801 calls)
     s_psi        :    316.46s CPU    158.25s WALL (    7801 calls)
     g_psi        :     17.68s CPU     10.74s WALL (    6970 calls)
     cdiaghg      :    309.38s CPU    155.64s WALL (    7789 calls)

     Called by h_psi:
     h_psi:pot    :   5992.52s CPU   3019.70s WALL (    7801 calls)
     h_psi:calbec :    327.80s CPU    164.29s WALL (    7801 calls)
     vloc_psi     :   5359.62s CPU   2697.06s WALL (    7801 calls)
     add_vuspsi   :    304.50s CPU    158.30s WALL (    7801 calls)

     General routines
     calbec       :    380.98s CPU    190.36s WALL (    8557 calls)
     fft          :    156.75s CPU     79.93s WALL (    4031 calls)
     ffts         :      1.32s CPU      0.72s WALL (     127 calls)
     fftw         :   4864.80s CPU   2253.18s WALL ( 1070712 calls)
     interpolate  :      3.74s CPU      1.92s WALL (      64 calls)
 
     Parallel routines
     fft_scatt_xy :    853.68s CPU    597.51s WALL ( 1074870 calls)
     fft_scatt_yz :    839.26s CPU    258.05s WALL ( 1074870 calls)
 
     PWSCF        :     2h32m CPU       32h 1m WALL

      17h
 
   This run was terminated on:  19:59:31   1Nov2018            

=------------------------------------------------------------------------------=
   JOB DONE.
=------------------------------------------------------------------------------=
